SystemName           # default value
SystemLabel     siesta     # default value
XML.Write              T     # default value
XML.AbortOnErrors              F     # default value
XML.AbortOnWarnings              F     # default value
timer_report_threshold          0.000000000         # default value
UseTreeTimer              F     # default value
alloc_report_level         0     # default value
alloc_report_threshold          0.000000000         # default value
xc.functional     GGA                                                                             
xc.authors     PBE                                                                             
MM.Cutoff          30.00000000     Bohr     # default value
MM.UnitsEnergy     eV     # default value
MM.UnitsDistance     Ang     # default value
WriteIonPlotFiles              F     # default value
Atom.Debug.KB.Generation              F     # default value
KB.New.Reference.Orbitals              F     # default value
user-basis              F     # default value
user-basis-netcdf              F     # default value
ReparametrizePseudos              F     # default value
Restricted.Radial.Grid              T     # default value
Rmax.Radial.Grid          0.000000000         # default value
PAO.BasisSize     SZP                                                                             
PAO.BasisType     split          # default value
PAO.SoftDefault              F     # default value
PAO.SoftInnerRadius         0.9000000000         # default value
PAO.SoftPotential          40.00000000         # default value
PAO.SplitNorm         0.1500000000         # default value
PAO.SplitNormH         -1.000000000         # default value
Number_of_species              1
%block Chemical_species_label
  1 6 C
%endblock Chemical_species_label
FilterCutoff          150.0000000             Ry
# above item originally: FilterCutoff          150.0000000     Ry        
KB.Rmax          6.000000000     Bohr     # default value
PAO.EnergyShift         0.2000000000E-01 Ry     # default value
PAO.SplitTailNorm              F     # default value
PAO.FixSplitTable              F     # default value
PAO.NewSplitCode              F     # default value
PAO.Filter              T     # default value
PAO.FilterFactor         0.4900000000         # default value
PAO.FilterTol         0.3000000000E-02 Ry     # default value
PAO.Filter              T     # default value
PAO.FilterFactor         0.4900000000         # default value
PAO.FilterTol         0.3000000000E-02 Ry     # default value
PAO.OldStylePolorbs              T     # default value
PAO.SplitTailNorm              F     # default value
PAO.FixSplitTable              F     # default value
PAO.NewSplitCode              F     # default value
PAO.Filter              T     # default value
PAO.FilterFactor         0.4900000000         # default value
PAO.FilterTol         0.3000000000E-02 Ry     # default value
Vna.Filter              T     # default value
VNA.FilterFactor          1.000000000         # default value
Vna.FilterCutoff          150.0000000     Ry     # default value
VNA.FilterTol         0.3000000000E-02 Ry     # default value
PCC.Filter              T     # default value
PCC.FilterFactor          1.000000000         # default value
PCC.FilterCutoff          150.0000000     Ry     # default value
PCC.FilterTol         0.3000000000E-02 Ry     # default value
PAO.BasisType     split          # default value
Atom-Setup-Only              F     # default value
UseStructFile              F     # default value
MD.UseStructFile              F     # default value
LatticeConstant          1.889726878           Bohr
# above item originally: LatticeConstant          1.000000000     Ang       
%block LatticeVectors
  25.92000000 0.00000000 0.00000000
  0.00000000 2.49415316 0.00000000
  0.00000000 0.00000000 14.40000000
AtomicCoordinatesFormat     Ang                                                                             
NumberOfAtoms             24
ZM.UnitsLength     Bohr           # default value
ZM.UnitsAngle     rad            # default value
ZM.ForceTolLength         0.1555740000E-02 Ry/Bohr     # default value
ZM.ForceTolAngle         0.3565490000E-02 Ry/rad     # default value
ZM.MaxDisplLength         0.2000000000     Bohr     # default value
ZM.MaxDisplAngle         0.3000000000E-02 rad     # default value
ZM.CalcAllForces              F     # default value
%block AtomicCoordinatesAndAtomicSpecies
   0.00000000  0.00000000  0.00000000 1 #  1: C
   0.72000000  1.24707658  0.00000000 1 #  2: C
   2.16000000  1.24707658  0.00000000 1 #  3: C
   2.88000000  0.00000000  0.00000000 1 #  4: C
   4.32000000  0.00000000  0.00000000 1 #  5: C
   5.04000000  1.24707658  0.00000000 1 #  6: C
   6.48000000  1.24707658  0.00000000 1 #  7: C
   7.20000000  0.00000000  0.00000000 1 #  8: C
   8.64000000  0.00000000  0.00000000 1 #  9: C
   9.36000000  1.24707658  0.00000000 1 # 10: C
  10.80000000  1.24707658  0.00000000 1 # 11: C
  11.52000000  0.00000000  0.00000000 1 # 12: C
  12.96000000  0.00000000  0.00000000 1 # 13: C
  13.68000000  1.24707658  0.00000000 1 # 14: C
  15.12000000  1.24707658  0.00000000 1 # 15: C
  15.84000000  0.00000000  0.00000000 1 # 16: C
  17.28000000  0.00000000  0.00000000 1 # 17: C
  18.00000000  1.24707658  0.00000000 1 # 18: C
  19.44000000  1.24707658  0.00000000 1 # 19: C
  20.16000000  0.00000000  0.00000000 1 # 20: C
  21.60000000  0.00000000  0.00000000 1 # 21: C
  22.32000000  1.24707658  0.00000000 1 # 22: C
  23.76000000  1.24707658  0.00000000 1 # 23: C
  24.48000000  0.00000000  0.00000000 1 # 24: C
UseSaveData              F     # default value
MD.UseSaveXV              F     # default value
MD.UseSaveZM              F     # default value
WriteCoorInitial              T     # default value
MD.TypeOfRun     none     # default value
MaxBondDistance          6.000000000     Bohr     # default value
Output-Structure-Only              F     # default value
WriteCoorXmol              F     # default value
#:physical? MaxWalltime              F
MaxWalltime         0.1797693135+309     # default value
#:physical? MaxWalltime.Slack              F
MaxWalltime.Slack          5.000000000         # default value
SpinPolarized              F     # default value
NonCollinearSpin              F     # default value
HSetupOnly              F     # default value
LongOutput              F     # default value
WriteDenchar              F     # default value
WriteMullikenPop         0     # default value
WriteHirshfeldPop              F     # default value
WriteVoronoiPop              F     # default value
PartialChargesAtEveryGeometry              F     # default value
PartialChargesAtEveryScfStep              F     # default value
Compat.Matel.NRTAB              F     # default value
MeshCutoff          250.0000000             Ry
# above item originally: MeshCutoff          250.0000000     Ry        
NetCharge          0.000000000         # default value
MinSCFIterations              3
MaxSCFIterations        50     # default value
SCFMustConverge              F     # default value
MixHamiltonian              F     # default value
TS.MixH              F     # default value
MixCharge              F     # default value
Compat-pre-v4-DM-H              F     # default value
SCF.MixAfterConvergence              F     # default value
SCF.Recompute-H-After-Scf              F     # default value
DM.NumberPulay         0     # default value
DM.NumberBroyden         0     # default value
DM.FIRE.Mixing              F     # default value
DM.MixSCF1              F     # default value
DM.PulayOnFile              F     # default value
DM.Pulay.Avoid.First.After.Kick              F     # default value
DM.MixingWeight         0.2500000000         # default value
DM.OccupancyTolerance         0.1000000000E-11     # default value
DM.NumberKick         0     # default value
DM.KickMixingWeight         0.5000000000         # default value
DM.Tolerance         0.1000000000E-03     # default value
DM.RequireEnergyConvergence              F     # default value
DM.EnergyTolerance         0.7349806700E-06 Ry     # default value
DM.RequireHarrisConvergence              F     # default value
DM.HarrisTolerance         0.7349806700E-06 Ry     # default value
MonitorForcesInSCF              F     # default value
UseSaveData              F     # default value
DM.UseSaveDM              T
NeglNonOverlapInt              F     # default value
SolutionMethod     transiesta                                                                      
Diag.Memory          1.000000000         # default value
ElectronicTemperature         0.1900069269E-02         Ry
# above item originally: ElectronicTemperature          300.0000000     K         
FixSpin              F     # default value
ON.MaxNumIter      1000     # default value
ON.etol         0.1000000000E-07     # default value
ON.eta          0.000000000     Ry     # default value
ON.eta_alpha          0.000000000     Ry     # default value
ON.eta_beta          0.000000000     Ry     # default value
On.RcLWF          9.500000000     Bohr     # default value
ON.UseSaveLWF              F     # default value
ON.functional     kim     # default value
ON.ChemicalPotentialUse              F     # default value
ON.ChemicalPotential              F     # default value
ON.ChemicalPotentialRc          9.500000000     Bohr     # default value
ON.ChemicalPotentialTemperature         0.5000000000E-01 Ry     # default value
ON.ChemicalPotentialOrder       100     # default value
MD.VariableCell              F     # default value
compat-pre-v4-dynamics              F     # default value
MD.TypeOfRun     cg     # default value
MD.UseSaveCG              F     # default value
Optim.Broyden              F     # default value
MD.NumCGsteps              0
MD.MaxCGDispl         0.2000000000     Bohr     # default value
MD.MaxForceTol         0.1555740000E-02 Ry/Bohr     # default value
MD.MaxStressTol         0.6797730000E-04 Ry/Bohr**3     # default value
GeometryMustConverge              F     # default value
MD.InitialTimeStep         1     # default value
MD.FinalTimeStep         1     # default value
MD.LengthTimeStep          1.000000000     fs     # default value
MD.Quench              F     # default value
MD.FireQuench              F     # default value
MD.InitialTemperature          0.000000000     K     # default value
MD.TargetTemperature          0.000000000     K     # default value
MD.TargetPressure          0.000000000     Ry/Bohr**3     # default value
MD.NoseMass          100.0000000     Ry*fs**2     # default value
MD.ParrinelloRahmanMass          100.0000000     Ry*fs**2     # default value
MD.AnnealOption     TemperatureAndPressure     # default value
MD.TauRelax          100.0000000     fs     # default value
MD.BulkModulus         0.6797730000E-02 Ry/Bohr**3     # default value
MD.FCDispl         0.4000000000E-01 Bohr     # default value
MD.FCfirst         1     # default value
MD.FClast        24     # default value
UseSpatialDecomposition              F     # default value
UseDomainDecomposition              F     # default value
Harris_functional              F     # default value
WriteKpoints              F     # default value
WriteForces              F     # default value
WriteDM              T     # default value
WriteDM.NetCDF              F     # default value
WriteDM.History.NetCDF              F     # default value
WriteDMHS.NetCDF              F     # default value
WriteDMHS.History.NetCDF              F     # default value
SCF.Read.Charge.NetCDF              F     # default value
SCF.Read.Deformation.Charge.NetCDF              F     # default value
SaveInitialChargeDensity              F     # default value
AnalyzeChargeDensityOnly              F     # default value
UseNewDiagk              F     # default value
WriteBands              F     # default value
WriteKbands              F     # default value
WriteEigenvalues              F     # default value
WriteCoorStep              F     # default value
WriteMDhistory              F     # default value
WriteMDXmol              T     # default value
UseSaveData              F     # default value
SaveHS              T
FixAuxiliaryCell              F     # default value
NaiveAuxiliaryCell              F     # default value
