SystemName           # default value
SystemLabel     siesta     # default value
SpinPolarized              F     # default value
NonCollinearSpin              F     # default value
SpinOrbit              F     # default value
#:block? SpinPolarized              F
#:defined? SpinPolarized              F
#:block? NonCollinearSpin              F
#:defined? NonCollinearSpin              F
#:block? SpinOrbit              F
#:defined? SpinOrbit              F
Spin     none                                 # default value
TimeReversalSymmetry              T     # default value
DebugObjects.Node         0     # default value
DebugObjects              F     # default value
XML.Write              F     # default value
timer_report_threshold          0.000000000         # default value
UseParallelTimer              T     # default value
UseTreeTimer              F     # default value
alloc_report_level         0     # default value
alloc_report_threshold          0.000000000         # default value
xc.functional     GGA                                                                             
xc.authors     PBE                                                                             
MM.Cutoff          30.00000000     Bohr     # default value
MM.UnitsEnergy     eV     # default value
MM.UnitsDistance     Ang     # default value
WriteIonPlotFiles              F     # default value
Atom.Debug.KB.Generation              F     # default value
KB.New.Reference.Orbitals              F     # default value
user-basis              F     # default value
user-basis-netcdf              F     # default value
#:block? DFTU.proj              F
#:defined? DFTU.proj              F
#:block? LDAU.proj              F
#:defined? LDAU.proj              F
Number_of_species              1
%block Chemical_species_label
  1 6 C
%endblock Chemical_species_label
ReparametrizePseudos              F     # default value
Restricted.Radial.Grid              T     # default value
Rmax.Radial.Grid          0.000000000         # default value
PAO.BasisSize     SZP                                                                             
PAO.BasisType     split          # default value
PAO.SoftDefault              F     # default value
PAO.SoftInnerRadius         0.9000000000         # default value
PAO.SoftPotential          40.00000000         # default value
PAO.SplitNorm         0.1500000000         # default value
PAO.SplitNormH         -1.000000000         # default value
LDAU.ProjectorGenerationMethod         2     # default value
DFTU.ProjectorGenerationMethod         2     # default value
LDAU.EnergyShift         0.5000000000E-01 Ry     # default value
DFTU.EnergyShift         0.5000000000E-01 Ry     # default value
LDAU.CutoffNorm         0.9000000000         # default value
DFTU.CutoffNorm         0.9000000000         # default value
PAO.SoftDefault              F     # default value
PAO.SoftInnerRadius         0.9000000000         # default value
PAO.SoftPotential          40.00000000         # default value
LDAU.ThresholdTol         0.1000000000E-01     # default value
DFTU.ThresholdTol         0.1000000000E-01     # default value
LDAU.PopTol         0.1000000000E-02     # default value
DFTU.PopTol         0.1000000000E-02     # default value
LDAU.PotentialShift              F     # default value
DFTU.PotentialShift              F     # default value
LDAU.FirstIteration              F     # default value
DFTU.FirstIteration              F     # default value
FilterCutoff          150.0000000             Ry
# above item originally: FilterCutoff          150.0000000     Ry        
KB.Rmax          6.000000000     Bohr     # default value
PAO.EnergyShift         0.2000000000E-01 Ry     # default value
PAO.SplitTailNorm              F     # default value
PAO.FixSplitTable              F     # default value
PAO.NewSplitCode              F     # default value
PAO.Filter              T     # default value
PAO.FilterFactor         0.4900000000         # default value
PAO.FilterTol         0.3000000000E-02 Ry     # default value
PAO.Filter              T     # default value
PAO.FilterFactor         0.4900000000         # default value
PAO.FilterTol         0.3000000000E-02 Ry     # default value
PAO.OldStylePolorbs              T     # default value
PAO.SplitTailNorm              F     # default value
PAO.FixSplitTable              F     # default value
PAO.NewSplitCode              F     # default value
PAO.Filter              T     # default value
PAO.FilterFactor         0.4900000000         # default value
PAO.FilterTol         0.3000000000E-02 Ry     # default value
Vna.Filter              T     # default value
VNA.FilterFactor          1.000000000         # default value
Vna.FilterCutoff          150.0000000     Ry     # default value
VNA.FilterTol         0.3000000000E-02 Ry     # default value
PCC.Filter              T     # default value
PCC.FilterFactor          1.000000000         # default value
PCC.FilterCutoff          150.0000000     Ry     # default value
PCC.FilterTol         0.3000000000E-02 Ry     # default value
PAO.BasisType     split          # default value
Atom-Setup-Only              F     # default value
UseStructFile              F     # default value
MD.UseStructFile              F     # default value
LatticeConstant          1.889726878           Bohr
# above item originally: LatticeConstant          1.000000000     Ang       
#:block? LatticeParameters              F
%block LatticeVectors
  25.92000000 0.00000000 0.00000000
  0.00000000 2.49415316 0.00000000
  0.00000000 0.00000000 14.40000000
%endblock LatticeVectors
AtomicCoordinatesFormat     Ang                                                                             
NumberOfAtoms             24
ZM.UnitsLength     Bohr           # default value
ZM.UnitsAngle     rad            # default value
ZM.ForceTolLength         0.1555740000E-02 Ry/Bohr     # default value
ZM.ForceTolAngle         0.3565490000E-02 Ry/rad     # default value
ZM.MaxDisplLength         0.2000000000     Bohr     # default value
ZM.MaxDisplAngle         0.3000000000E-02 rad     # default value
ZM.CalcAllForces              F     # default value
%block AtomicCoordinatesAndAtomicSpecies
   0.00000000  0.00000000  0.00000000 1 #  1: C
   0.72000000  1.24707658  0.00000000 1 #  2: C
   2.16000000  1.24707658  0.00000000 1 #  3: C
   2.88000000  0.00000000  0.00000000 1 #  4: C
   4.32000000  0.00000000  0.00000000 1 #  5: C
   5.04000000  1.24707658  0.00000000 1 #  6: C
   6.48000000  1.24707658  0.00000000 1 #  7: C
   7.20000000  0.00000000  0.00000000 1 #  8: C
   8.64000000  0.00000000  0.00000000 1 #  9: C
   9.36000000  1.24707658  0.00000000 1 # 10: C
  10.80000000  1.24707658  0.00000000 1 # 11: C
  11.52000000  0.00000000  0.00000000 1 # 12: C
  12.96000000  0.00000000  0.00000000 1 # 13: C
  13.68000000  1.24707658  0.00000000 1 # 14: C
  15.12000000  1.24707658  0.00000000 1 # 15: C
  15.84000000  0.00000000  0.00000000 1 # 16: C
  17.28000000  0.00000000  0.00000000 1 # 17: C
  18.00000000  1.24707658  0.00000000 1 # 18: C
  19.44000000  1.24707658  0.00000000 1 # 19: C
  20.16000000  0.00000000  0.00000000 1 # 20: C
  21.60000000  0.00000000  0.00000000 1 # 21: C
  22.32000000  1.24707658  0.00000000 1 # 22: C
  23.76000000  1.24707658  0.00000000 1 # 23: C
  24.48000000  0.00000000  0.00000000 1 # 24: C
%endblock AtomicCoordinatesAndAtomicSpecies
MD.UseSaveXV              F     # default value
MD.UseSaveZM              F     # default value
WriteCoorInitial              T     # default value
MD.TypeOfRun     none     # default value
MD.TypeOfRun     none     # default value
MaxBondDistance          6.000000000     Bohr     # default value
Output-Structure-Only              F     # default value
WriteCoorXmol              F     # default value
#:physical? MaxWalltime              F
MaxWalltime         0.1797693135+309     # default value
#:physical? MaxWalltime.Slack              F
MaxWalltime.Slack          5.000000000         # default value
HSetupOnly              F     # default value
LongOutput              F     # default value
WriteDenchar              F     # default value
WriteMullikenPop         0     # default value
WriteOrbMom              F     # default value
WriteHirshfeldPop              F     # default value
WriteVoronoiPop              F     # default value
PartialChargesAtEveryGeometry              F     # default value
PartialChargesAtEveryScfStep              F     # default value
Compat.Matel.NRTAB              F     # default value
MeshCutoff          250.0000000             Ry
# above item originally: MeshCutoff          250.0000000     Ry        
NetCharge          0.000000000         # default value
MinSCFIterations              3
MaxSCFIterations      1000     # default value
SCF.MustConverge              T     # default value
#:block? TS.MixH              F
#:defined? TS.MixH              F
#:block? MixHamiltonian              F
#:defined? MixHamiltonian              F
#:block? MixCharge              F
#:defined? MixCharge              F
TS.MixH              T     # default value
MixHamiltonian              T     # default value
MixCharge              F     # default value
SCF.Mix     Hamiltonian     # default value
Compat-pre-v4-DM-H              F     # default value
SCF.MixAfterConvergence              F     # default value
SCF.Recompute-H-After-Scf              F     # default value
DM.NumberPulay         0     # default value
DM.NumberBroyden         0     # default value
DM.FIRE.Mixing              F     # default value
DM.MixSCF1              T     # default value
SCF.Mix.First              T
SCF.Mix.First.Force              F     # default value
DM.PulayOnFile              F     # default value
DM.MixingWeight         0.2500000000         # default value
DM.OccupancyTolerance         0.1000000000E-11     # default value
DM.NumberKick         0     # default value
DM.KickMixingWeight         0.5000000000         # default value
DM.RequireHarrisConvergence              F     # default value
SCF.Harris.Converge              F     # default value
DM.HarrisTolerance         0.7349806700E-05 Ry     # default value
SCF.Harris.Tolerance         0.7349806700E-05 Ry     # default value
SCF.DM.Converge              T     # default value
DM.Tolerance         0.1000000000E-03     # default value
SCF.DM.Tolerance         0.1000000000E-03
SCF.EDM.Converge              F     # default value
SCF.EDM.Tolerance         0.7349806700E-04 Ry     # default value
SCF.H.Converge              T     # default value
SCF.H.Tolerance         0.7349806700E-04 Ry     # default value
DM.RequireEnergyConvergence              F     # default value
SCF.FreeE.Converge              F     # default value
DM.EnergyTolerance         0.7349806700E-05 Ry     # default value
SCF.FreeE.Tolerance         0.7349806700E-05 Ry     # default value
MonitorForcesInSCF              F     # default value
SCF.MonitorForces              F     # default value
UseSaveData              F     # default value
DM.UseSaveDM              T
NeglNonOverlapInt              F     # default value
SolutionMethod     transiesta                                                                      
ElectronicTemperature         0.1900069269E-02         Ry
# above item originally: ElectronicTemperature          300.0000000     K         
FixSpin              F     # default value
Spin.Fix              F     # default value
ON.MaxNumIter      1000     # default value
ON.etol         0.1000000000E-07     # default value
ON.eta          0.000000000     Ry     # default value
ON.eta_alpha          0.000000000     Ry     # default value
ON.eta_beta          0.000000000     Ry     # default value
On.RcLWF          9.500000000     Bohr     # default value
ON.UseSaveLWF              F     # default value
ON.functional     kim     # default value
ON.ChemicalPotentialUse              F     # default value
ON.ChemicalPotential              F     # default value
ON.ChemicalPotentialRc          9.500000000     Bohr     # default value
ON.ChemicalPotentialTemperature         0.5000000000E-01 Ry     # default value
ON.ChemicalPotentialOrder       100     # default value
MD.VariableCell              F     # default value
compat-pre-v4-dynamics              F     # default value
MD.TypeOfRun     cg     # default value
MD.UseSaveCG              F     # default value
Optim.Broyden              F     # default value
#:block? Optim.Broyden              F
#:defined? Optim.Broyden              F
MD.NumCGsteps              0
MD.Steps         0     # default value
MD.MaxCGDispl         0.2000000000     Bohr     # default value
MD.MaxDispl         0.2000000000     Bohr     # default value
MD.MaxForceTol         0.1555740000E-02 Ry/Bohr     # default value
MD.MaxStressTol         0.6797730000E-04 Ry/Bohr**3     # default value
GeometryMustConverge              F     # default value
MD.InitialTimeStep         1     # default value
#:block? MD.Steps              F
#:defined? MD.Steps              F
MD.FinalTimeStep         1     # default value
MD.LengthTimeStep          1.000000000     fs     # default value
MD.Quench              F     # default value
MD.FireQuench              F     # default value
MD.InitialTemperature          0.000000000     K     # default value
MD.TargetTemperature          0.000000000     K     # default value
MD.TargetPressure          0.000000000     Ry/Bohr**3     # default value
MD.NoseMass          100.0000000     Ry*fs**2     # default value
MD.ParrinelloRahmanMass          100.0000000     Ry*fs**2     # default value
MD.AnnealOption     TemperatureAndPressure     # default value
MD.TauRelax          100.0000000     fs     # default value
MD.BulkModulus         0.6797730000E-02 Ry/Bohr**3     # default value
MD.FCDispl         0.4000000000E-01 Bohr     # default value
MD.FCfirst         1     # default value
MD.FClast        24     # default value
UseSpatialDecomposition              F     # default value
UseDomainDecomposition              F     # default value
SCF.Mix.Spin     all     # default value
Mixer.Debug              F     # default value
Mixer.Debug.MPI              F     # default value
DM.NumberPulay         2     # default value
DM.NumberBroyden         0     # default value
DM.MixingWeight         0.2500000000         # default value
DM.NumberKick         0     # default value
DM.KickMixingWeight         0.5000000000         # default value
SCF.LinearMixingAfterPulay              F     # default value
SCF.MixingWeightAfterPulay         0.2500000000         # default value
SCF.Mixer.History             12
SCF.Mixer.Weight         0.1000000000    
SCF.Mixer.Kick         0     # default value
SCF.Mixer.Kick.Weight         0.5000000000         # default value
SCF.Mixer.Restart         0     # default value
SCF.Mixer.Restart.Save         1     # default value
SCF.Mixer.Method     Pulay     # default value
SCF.Mixer.Variant     original     # default value
SCF.Mixer.Linear.After        -1     # default value
SCF.Mixer.Linear.After.Weight         0.2500000000         # default value
#:block? ChargeGeometries              F
#:defined? ChargeGeometries              F
#:block? ChargeGeometries              F
#:defined? ChargeGeometries              F
Harris_functional              F     # default value
ForceAuxCell              F     # default value
#:block? Optim.Broyden.History.Steps              F
#:defined? Optim.Broyden.History.Steps              F
#:block? Optim.Broyden.Cycle.On.Maxit              F
#:defined? Optim.Broyden.Cycle.On.Maxit              F
#:block? Optim.Broyden.Variable.Weight              F
#:defined? Optim.Broyden.Variable.Weight              F
#:block? Optim.Broyden.Debug              F
#:defined? Optim.Broyden.Debug              F
#:block? Optim.Broyden.Initial.Inverse.Jacobian              F
#:defined? Optim.Broyden.Initial.Inverse.Jacobian              F
WriteKpoints              F     # default value
WriteForces              F     # default value
WriteDM              T     # default value
WriteDM.End.Of.Cycle              T     # default value
WriteH              F     # default value
WriteH.End.Of.Cycle              F     # default value
WriteDM.NetCDF              F     # default value
WriteDM.History.NetCDF              F     # default value
WriteDMHS.NetCDF              F     # default value
WriteDMHS.History.NetCDF              F     # default value
SCF.Read.Charge.NetCDF              F     # default value
SCF.Read.Deformation.Charge.NetCDF              F     # default value
Write.TSHS.History              F     # default value
SaveInitialChargeDensity              F     # default value
AnalyzeChargeDensityOnly              F     # default value
UseNewDiagk              F     # default value
Diag.WFS.Cache     none     # default value
WriteBands              F     # default value
WriteKbands              F     # default value
WriteEigenvalues              F     # default value
WriteCoorStep              F     # default value
WriteMDhistory              F     # default value
WriteMDXmol              T     # default value
WriteOrbitalIndex              T     # default value
Write.Graphviz     none     # default value
WriteCoorStep              F     # default value
SaveHS              T
ReInitialiseDM              T     # default value
DM.AllowReuse              T     # default value
DM.AllowExtrapolation              T     # default value
DM.History.Depth         1     # default value
DM.NormalizationTolerance         0.1000000000E-04     # default value
DM.NormalizeDuringSCF              T     # default value
MullikenInSCF              F     # default value
SpinInSCF              F     # default value
WarningMinimumAtomicDistance          1.000000000     Bohr     # default value
BornCharge              F     # default value
ChangeKgridInMD              F     # default value
MD.RelaxCellOnly              F     # default value
MD.RemoveIntraMolecularPressure              F     # default value
COOP.Write              F     # default value
SaveRho              F     # default value
SaveDeltaRho              F     # default value
SaveRhoXC              F     # default value
SaveElectrostaticPotential              F     # default value
SaveNeutralAtomPotential              F     # default value
SaveTotalPotential              F     # default value
SaveIonicCharge              F     # default value
SaveBaderCharge              F     # default value
SaveTotalCharge              F     # default value
Siesta2Wannier90.WriteMmn              F     # default value
Siesta2Wannier90.WriteUnk              F     # default value
Siesta2Wannier90.WriteAmn              F     # default value
Siesta2Wannier90.WriteEig              F     # default value
#:block? Siesta2Wannier90.NumberOfBandsUp              F
#:defined? Siesta2Wannier90.NumberOfBandsUp              F
#:block? Siesta2Wannier90.NumberOfBandsDown              F
#:defined? Siesta2Wannier90.NumberOfBandsDown              F
#:block? Siesta2Wannier90.NumberOfBands              F
#:defined? Siesta2Wannier90.NumberOfBands              F
Siesta2Wannier90.NumberOfBandsUp         0     # default value
Siesta2Wannier90.NumberOfBandsDown         0     # default value
Siesta2Wannier90.NumberOfBands         0     # default value
CDF.Save              F     # default value
CDF.Compress         0     # default value
CDF.Read.Parallel              F     # default value
DM.AllowReuse              T     # default value
DM.AllowExtrapolation              T     # default value
DM.AllowExtrapolation              F     # default value
NumberOfEigenStates       216     # default value
RcSpatial          0.000000000     Bohr     # default value
ProcessorGridX         1     # default value
ProcessorGridY         1     # default value
ProcessorGridZ         1     # default value
#:block? SpinSpiral              F
#:defined? SpinSpiral              F
TimeReversalSymmetryForKpoints              T     # default value
%block kgrid_Monkhorst_Pack
     3  0  0 0.
     0 10  0 0.
     0  0  1 0.
%endblock kgrid_Monkhorst_Pack
Diag.ProcessorY         1     # default value
Diag.BlockSize         8     # default value
Diag.Use2D              F     # default value
Diag.UpperLower     lower     # default value
Diag.DivideAndConquer              T     # default value
Diag.NoExpert              F     # default value
Diag.Algorithm     Divide-and-Conquer     # default value
Diag.AbsTol         0.1000000000E-15     # default value
Diag.OrFac         0.1000000000E-05     # default value
Diag.Memory          1.000000000         # default value
#:block? ProjectedDensityOfStates              F
#:block? BandLines              F
#:defined? BandLines              F
#:block? BandPoints              F
#:defined? BandPoints              F
LongOutput              F     # default value
WriteWaveFunctions              F     # default value
#:block-line-count? MetaForce (iirrr)   0
#:block? TS.BufferAtomsLeft              F
#:defined? TS.BufferAtomsLeft              F
#:block? TS.BufferAtomsRight              F
#:defined? TS.BufferAtomsRight              F
#:list? TS.Atoms.Buffer              F
TS.HS.Save              F     # default value
TS.DE.Save              F     # default value
TS.onlyS              F     # default value
TS.S.Save              F     # default value
TS.Voltage.FromSiesta              F     # default value
Mixer.Debug              F     # default value
Mixer.Debug.MPI              F     # default value
TS.SCF.DM.Tolerance         0.1000000000E-03     # default value
TS.SCF.H.Tolerance         0.7349806700E-04     # default value
TS.SCF.Mix.History.Keep         0     # default value
TS.SIESTA.Only              F     # default value
TS.SolutionMethod     BTD     # default value
SCF.Initialize     diagon     # default value
TS.SCF.Initialize     diagon                                                                                                                                                                                                       # default value
TS.BTD.Optimize     speed     # default value
TS.Analyze              F     # default value
TS.ChargeCorrection     none     # default value
TS.dQ     none                                                                 # default value
TS.ChargeCorrection.Fermi.Tolerance         0.1000000000E-01     # default value
TS.dQ.Fermi.Tolerance         0.1000000000E-01     # default value
TS.ChargeCorrection.Fermi.Max         0.1102471005     Ry     # default value
TS.dQ.Fermi.Max         0.1102471005     Ry     # default value
TS.dQ.Fermi.Scale          50.00000000         # default value
TS.dQ.Fermi.Eta         0.7349806700E-04 Ry     # default value
TS.ChargeCorrection.Factor         0.8000000000         # default value
TS.dQ.Factor         0.8000000000         # default value
TS.Weight.k.Method     correlated     # default value
TS.Weight.Method     orb-orb     # default value
TS.Forces              T     # default value
TS.ElectronicTemperature         0.1900069269E-02 Ry     # default value
TS.Voltage          0.000000000             Ry
# above item originally: TS.Voltage          0.000000000     eV        
%block TS.ChemPots
   Fermi
%endblock TS.ChemPots
TS.Contours.Eq.Pole.N         8     # default value
TS.Contours.Eq.Pole         0.1837449711             Ry
# above item originally: TS.Contours.Eq.Pole          2.500000000     eV        
%block TS.ChemPots
   Fermi
%endblock TS.ChemPots
%block TS.ChemPot.Fermi
   mu 0. eV
   contour.eq
     begin
       C-Fermi
       T-Fermi
     end
 #:(Backspace to) |    end|
 #:(Backspace to) |      T-Fermi|
 #:(Backspace to) |      C-Fermi|
       C-Fermi
       T-Fermi
     end
%endblock TS.ChemPot.Fermi
TS.Contours.Eq.Pole         0.1837449711             Ry
# above item originally: TS.Contours.Eq.Pole          2.500000000     eV        
#:block? TS.GFTitle              F
#:defined? TS.GFTitle              F
#:block? TS.HSFileLeft              F
#:defined? TS.HSFileLeft              F
#:block? TS.GFFileLeft              F
#:defined? TS.GFFileLeft              F
#:block? TS.NumUsedAtomsLeft              F
#:defined? TS.NumUsedAtomsLeft              F
#:block? TS.ReplicateA1Left              F
#:defined? TS.ReplicateA1Left              F
#:block? TS.ReplicateA2Left              F
#:defined? TS.ReplicateA2Left              F
#:block? TS.HSFileRight              F
#:defined? TS.HSFileRight              F
#:block? TS.GFFileRight              F
#:defined? TS.GFFileRight              F
#:block? TS.NumUsedAtomsRight              F
#:defined? TS.NumUsedAtomsRight              F
#:block? TS.ReplicateA1Right              F
#:defined? TS.ReplicateA1Right              F
#:block? TS.ReplicateA2Right              F
#:defined? TS.ReplicateA2Right              F
#:block? TS.UpdateDMCROnly              F
#:defined? TS.UpdateDMCROnly              F
#:block? TS.UseBulk              F
#:defined? TS.UseBulk              F
#:block? TS.CalcGF              F
#:defined? TS.CalcGF              F
#:block? TS.ReUseGF              F
#:defined? TS.ReUseGF              F
TS.Elecs.Coord.Eps         0.1889726878E-02 Bohr     # default value
%block TS.Elecs
   Left
   Right
%endblock TS.Elecs
%block TS.Elecs
   Left
   Right
%endblock TS.Elecs
TS.Elecs.Accuracy         0.7349806700E-14 Ry     # default value
TS.Elecs.Eta         0.7349806700E-04 Ry     # default value
TS.Elecs.Bulk              T     # default value
TS.Elecs.DM.Update     cross-terms     # default value
TS.Elecs.DM.Init     diagon     # default value
TS.Elecs.GF.ReUse              T     # default value
TS.Elecs.Out-of-core              T     # default value
#:block? TS.Elec.Left.HS              F
#:defined? TS.Elec.Left.HS              F
TS.Elec.Left.Bloch.A1         1     # default value
TS.Elec.Left.Bloch.A2         1     # default value
TS.Elec.Left.Bloch.A3         1     # default value
#:block? TS.Elec.Left.GF              F
#:defined? TS.Elec.Left.GF              F
%block TS.Elec.Left
TS.Elec.Left.UsedAtoms        -1     # default value
   HS ELEC.TSHS
   semi-inf-direction -a1
   electrode-position 1
%endblock TS.Elec.Left
#:block? TS.Elec.Right.HS              F
#:defined? TS.Elec.Right.HS              F
TS.Elec.Right.Bloch.A1         1     # default value
TS.Elec.Right.Bloch.A2         1     # default value
TS.Elec.Right.Bloch.A3         1     # default value
#:block? TS.Elec.Right.GF              F
#:defined? TS.Elec.Right.GF              F
%block TS.Elec.Right
TS.Elec.Right.UsedAtoms        -1     # default value
   HS ELEC.TSHS
   semi-inf-direction +a1
   electrode-position end -1
%endblock TS.Elec.Right
TS.Poisson     ramp     # default value
SpinSpiral              F     # default value
%block kgrid_Monkhorst_Pack
     3  0  0 0.
     0 10  0 0.
     0  0  1 0.
%endblock kgrid_Monkhorst_Pack
TS.BTD.Spectral     propagation     # default value
TS.Hartree.Fix     A                                                                    # default value
TS.Hartree.Fix.Frac          1.000000000         # default value
TS.Hartree.Offset          0.000000000     Ry     # default value
#:block? TS.ComplexContour.NPoles              F
#:defined? TS.ComplexContour.NPoles              F
%block TS.Contour.C-Fermi
   part circle
    from -40. eV to -10 kT
      points 25
       method g-legendre
%endblock TS.Contour.C-Fermi
%block TS.Contour.T-Fermi
   part tail
    from prev to inf
      points 10
       method g-fermi
%endblock TS.Contour.T-Fermi
TS.SCF.dQ.Tolerance         0.9600000000E-01     # default value
TS.SCF.dQ.Converge              T     # default value
TS.BTD.Pivot     atom+Left     # default value
TS.Contours.Eq.Pole.N         8     # default value
TS.Contours.Eq.Pole         0.1837449711             Ry
# above item originally: TS.Contours.Eq.Pole          2.500000000     eV        
TS.Atoms.Print              F     # default value
AtomicCoordinatesFormat     Ang                                                                             
AtomCoorFormatOut     Ang                        # default value
LatticeConstant          1.889726878           Bohr
# above item originally: LatticeConstant          1.000000000     Ang       
debug-folding              F     # default value
Sonly              F     # default value
File.TSDE.Init     siesta.TSDE     # default value
File.DM.Init     siesta.DM     # default value
Sonly              F     # default value
Debug.DHSCF              F     # default value
MeshSubDivisions         2     # default value
#:list? Mesh.Sizes              F
XC.Use.BSC.CellXC              F     # default value
DirectPhi              F     # default value
SimulateDoping              F     # default value
Slab.DipoleCorrection     none     # default value
Read-H-from-file              F     # default value
SingleExcitation              F     # default value
OccupationFunction     FD     # default value
OccupationFunction     FD     # default value
Read-H-from-file              F     # default value
TS.BTD.Pivot     atom+Left     # default value
TS.BTD.Guess1.Min        14     # default value
TS.BTD.Guess1.Max        54     # default value
TS.BTD.Output           # default value
compute-forces              T     # default value
#:list? Grid.CellSampling              F
Read-H-from-file              F     # default value
WriteCoorXmol              F     # default value
WriteCoorCerius              F     # default value
BasisPressure         0.2000000000     GPa     # default value
OpticalCalculation              F     # default value
