Siesta Version  : v4.0.2
Architecture    : x86_64-unknown-linux-gnu--unknown
Compiler version: GNU Fortran (Ubuntu 9.4.0-1ubuntu1~20.04.1) 9.4.0
Compiler flags  : mpif90 -g -O2
PP flags        : -DMPI -DFC_HAVE_FLUSH -DFC_HAVE_ABORT -DTRANSIESTA  -DTRANSIESTA
PARALLEL version
TRANSIESTA support

* Running in serial mode with MPI
>> Start of run:  23-MAR-2023  19:37:10

                           ***********************       
                           *  WELCOME TO SIESTA  *       
                           ***********************       

reinit: Reading from standard input
************************** Dump of input data file ****************************
SolutionMethod transiesta
%block kgrid.MonkhorstPack
    3  0  0 0.
    0 10  0 0.
    0  0  1 0.
%endblock kgrid.MonkhorstPack
TS.Voltage 0 eV
# To highlight the simplest options
# for transiesta we here show the input
# in its reduced form. This may ONLY
# be used for non-bias calculations.
# In the next example we will reuse this
# setup but create the input options for
# a bias calculation.
%block TS.ChemPots
  Fermi
%endblock TS.ChemPots
# Define how the "Fermi" chemical potential
# should be defined, i.e.
# the energy shift of the chemical potential
# with regards to the device "Fermi" level.
# Also, we define the contours needed to
# integegrate the equilibrium contour for
# this chemical potential.
%block TS.ChemPot.Fermi
  mu 0. eV
  contour.eq
    begin
      C-Fermi
      T-Fermi
    end
%endblock
# From this energy the number of poles will be calculated
# from the energy and the temperature.
TS.Contours.Eq.Pole 2.5 eV
%block TS.Contour.C-Fermi
  part circle
   from -40. eV to -10 kT
     points 25
      method g-legendre
%endblock
%block TS.Contour.T-Fermi
  part tail
   from prev to inf
     points 10
      method g-fermi
%endblock
%block TS.Elecs
  Left
  Right
%endblock TS.Elecs
%block TS.Elec.Left
  HS ELEC.TSHS
  semi-inf-direction -a1
  electrode-position 1
%endblock
%block TS.Elec.Right
  HS ELEC.TSHS
  semi-inf-direction +a1
  electrode-position end -1
%endblock
# This is the remaining default SIESTA options
PAO.BasisSize         SZP
XC.functional     GGA
XC.authors        PBE
MeshCutoff        250.000000 Ry
FilterCutoff      150.000000 Ry
ElectronicTemperature   300 K
MinSCFIterations       3
SCF.DM.Tolerance       0.0001
# Mixing parameters:
SCF.Mixer.Weight       0.10
SCF.Mixer.History      12
SCF.Mix.First          true
DM.UseSaveDM           true
MD.NumCGSteps 0
SaveHS                          T
%include STRUCT_DEVICE.fdf
************************** End of input data file *****************************

reinit: -----------------------------------------------------------------------
reinit: System Name: 
reinit: -----------------------------------------------------------------------
reinit: System Label: siesta                                                      
reinit: -----------------------------------------------------------------------

initatom: Reading input for the pseudopotentials and atomic orbitals ----------
 Species number:            1  Label: C Atomic number:           6
Ground state valence configuration:   2s02  2p02
Reading pseudopotential information in formatted form from C.psf

Valence configuration for pseudopotential generation:
2s( 2.00) rc: 1.20
2p( 2.00) rc: 1.19
3d( 0.00) rc: 1.43
4f( 0.00) rc: 1.43
For C, standard SIESTA heuristics set lmxkb to 3
 (one more than the basis l, including polarization orbitals).
Use PS.lmax or PS.KBprojectors blocks to override.

<basis_specs>
===============================================================================
C                    Z=   6    Mass=  12.010        Charge= 0.17977+309
Lmxo=1 Lmxkb= 3    BasisType=split      Semic=F
L=0  Nsemic=0  Cnfigmx=2
          n=1  nzeta=1  polorb=0
            splnorm:   0.15000    
               vcte:    0.0000    
               rinn:    0.0000    
               qcoe:    0.0000    
               qyuk:    0.0000    
               qwid:   0.10000E-01
                rcs:    0.0000    
            lambdas:    1.0000    
L=1  Nsemic=0  Cnfigmx=2
          n=1  nzeta=1  polorb=1
            splnorm:   0.15000    
               vcte:    0.0000    
               rinn:    0.0000    
               qcoe:    0.0000    
               qyuk:    0.0000    
               qwid:   0.10000E-01
                rcs:    0.0000    
            lambdas:    1.0000    
-------------------------------------------------------------------------------
L=0  Nkbl=1  erefs: 0.17977+309
L=1  Nkbl=1  erefs: 0.17977+309
L=2  Nkbl=1  erefs: 0.17977+309
L=3  Nkbl=1  erefs: 0.17977+309
===============================================================================
</basis_specs>

Filter: Requested cutoff:  150.000000 Ry
atom: Called for C                     (Z =   6)

read_vps: Pseudopotential generation method:
read_vps: ATM3      Troullier-Martins                       
Total valence charge:    4.00000

read_vps: Pseudopotential includes a core correction:
read_vps: Pseudo-core for xc-correction

xc_check: Exchange-correlation functional:
xc_check: GGA Perdew, Burke & Ernzerhof 1996
V l=0 = -2*Zval/r beyond r=  1.2007
V l=1 = -2*Zval/r beyond r=  1.1710
V l=2 = -2*Zval/r beyond r=  1.4126
V l=3 = -2*Zval/r beyond r=  1.3951
All V_l potentials equal beyond r=  1.3951
This should be close to max(r_c) in ps generation
All pots = -2*Zval/r beyond r=  1.4126

VLOCAL1: 99.0% of the norm of Vloc inside     22.304 Ry
VLOCAL1: 99.9% of the norm of Vloc inside     50.830 Ry
atom: Maximum radius for 4*pi*r*r*local-pseudopot. charge    1.68286
atom: Maximum radius for r*vlocal+2*Zval:    1.44839
GHOST: No ghost state for L =  0
GHOST: No ghost state for L =  1
GHOST: No ghost state for L =  2
GHOST: No ghost state for L =  3

KBgen: Kleinman-Bylander projectors: 
   l= 0   rc=  1.561233   el= -1.009801   Ekb=  7.994661   kbcos=  0.259238
   l= 1   rc=  1.561233   el= -0.388707   Ekb= -5.421033   kbcos= -0.292933
   l= 2   rc=  1.682861   el=  0.001971   Ekb= -0.997067   kbcos= -0.007447
   l= 3   rc=  1.791422   el=  0.003065   Ekb= -0.398816   kbcos= -0.000907

KBgen: Total number of  Kleinman-Bylander projectors:   16
atom: -------------------------------------------------------------------------

atom: SANKEY-TYPE ORBITALS:

SPLIT: Orbitals with angular momentum L= 0

SPLIT: Basis orbitals for state 2s

SPLIT: PAO cut-off radius determined from an
SPLIT: energy shift=  0.020000 Ry

   izeta = 1
                 lambda =    1.000000
                     rc =    4.088342
                 energy =   -0.989111
                kinetic =    0.950291
    potential(screened) =   -1.939402
       potential(ionic) =   -5.528290
PAO Filter: Cutoff used:   73.50 Ry
PAO Filter: diagnostic kin energy tol:    0.003000 Ry
PAO Filter: Nominal cutoff (before filtering):   62.85 Ry
Filter:    Number of eigenfunctions  of the
           filtering kernel (total, used)= 33 10

SPLIT: Orbitals with angular momentum L= 1

SPLIT: Basis orbitals for state 2p

SPLIT: PAO cut-off radius determined from an
SPLIT: energy shift=  0.020000 Ry

   izeta = 1
                 lambda =    1.000000
                     rc =    4.870301
                 energy =   -0.368903
                kinetic =    2.604231
    potential(screened) =   -2.973133
       potential(ionic) =   -6.453995
PAO Filter: Cutoff used:   73.50 Ry
PAO Filter: diagnostic kin energy tol:    0.003000 Ry
PAO Filter: Nominal cutoff (before filtering):   62.12 Ry
Filter:    Number of eigenfunctions  of the
           filtering kernel (total, used)= 37 11

POLgen: Perturbative polarization orbital with L=  2

POLgen: Polarization orbital for state 2p

   izeta = 1
                     rc =    4.870301
                 energy =    1.294691
                kinetic =    2.618233
    potential(screened) =   -1.323542
       potential(ionic) =   -4.271746
PAO Filter: diagnostic kin energy tol:    0.003000 Ry
PAO Filter: Nominal cutoff (before filtering):  115.21 Ry
Filter:    Number of eigenfunctions  of the
           filtering kernel (total, used)= 37 11
atom: Total number of Sankey-type orbitals:  9

atm_pop: Valence configuration (for local Pseudopot. screening):
 2s( 2.00)                                                            
 2p( 2.00)                                                            
Vna: chval, zval:    4.00000   4.00000

Vna:  Cut-off radius for the neutral-atom potential:   4.870301
VNA Filter: diagnostic kinetic energy tol:    0.003000 Ry
VNA Filter: Nominal cutoff (before filtering):   27.20 Ry
VNA Filter: Cutoff used:   150.00 Ry
Filter:    Number of eigenfunctions  of the
           filtering kernel (total, used)= 49 17
comcore: Pseudo-core radius Rcore=  1.791422
PCC Filter: diagnostic kin energy tol:    0.003000 Ry
PCC Filter: Nominal cutoff (before filtering):  211.64 Ry
PCC Filter: Cutoff used:   150.00 Ry
Filter:    Number of eigenfunctions  of the
           filtering kernel (total, used)= 24  5

atom: _________________________________________________________________________

prinput: Basis input ----------------------------------------------------------

PAO.BasisType split     

%block ChemicalSpeciesLabel
    1    6 C                       # Species index, atomic number, species label
%endblock ChemicalSpeciesLabel

%block PAO.Basis                 # Define Basis set
C                     2                    # Species label, number of l-shells
 n=2   0   1                         # n, l, Nzeta 
   4.088   
   1.000   
 n=2   1   1 P   1                   # n, l, Nzeta, Polarization, NzetaPol
   4.870   
   1.000   
%endblock PAO.Basis

prinput: ----------------------------------------------------------------------

coor:   Atomic-coordinates input format  =     Cartesian coordinates
coor:                                          (in Angstroms)

siesta: Atomic coordinates (Bohr) and species
siesta:      0.00000   0.00000   0.00000  1        1
siesta:      1.36060   2.35663   0.00000  1        2
siesta:      4.08181   2.35663   0.00000  1        3
siesta:      5.44241   0.00000   0.00000  1        4
siesta:      8.16362   0.00000   0.00000  1        5
siesta:      9.52422   2.35663   0.00000  1        6
siesta:     12.24543   2.35663   0.00000  1        7
siesta:     13.60603   0.00000   0.00000  1        8
siesta:     16.32724   0.00000   0.00000  1        9
siesta:     17.68784   2.35663   0.00000  1       10
siesta:     20.40905   2.35663   0.00000  1       11
siesta:     21.76965   0.00000   0.00000  1       12
siesta:     24.49086   0.00000   0.00000  1       13
siesta:     25.85146   2.35663   0.00000  1       14
siesta:     28.57267   2.35663   0.00000  1       15
siesta:     29.93327   0.00000   0.00000  1       16
siesta:     32.65448   0.00000   0.00000  1       17
siesta:     34.01508   2.35663   0.00000  1       18
siesta:     36.73629   2.35663   0.00000  1       19
siesta:     38.09689   0.00000   0.00000  1       20
siesta:     40.81810   0.00000   0.00000  1       21
siesta:     42.17870   2.35663   0.00000  1       22
siesta:     44.89991   2.35663   0.00000  1       23
siesta:     46.26051   0.00000   0.00000  1       24

siesta: System type = slab      

initatomlists: Number of atoms, orbitals, and projectors:     24   216   384

siesta: ******************** Simulation parameters ****************************
siesta:
siesta: The following are some of the parameters of the simulation.
siesta: A complete list of the parameters used, including default values,
siesta: can be found in file out.fdf
siesta:
redata: Non-Collinear-spin run           =     F
redata: SpinPolarized (Up/Down) run      =     F
redata: Number of spin components        =     1
redata: Long output                      =     F
redata: Number of Atomic Species         =        1
redata: Charge density info will appear in .RHO file
redata: Write Mulliken Pop.              =     NO
redata: Matel table size (NRTAB)         =     1024
redata: Mesh Cutoff                      =   250.0000 Ry
redata: Net charge of the system         =     0.0000 |e|
redata: Min. number of SCF Iter          =        3
redata: Max. number of SCF Iter          =       50
redata: Mix DM or H after convergence    =     F
redata: Recompute H after scf cycle      =     F
redata: Mixing is linear
redata: Mix DM in first SCF step ?       =     F
redata: Write Pulay info on disk?        =     F
redata: Discard 1st Pulay DM after  kick =     F
redata: New DM Mixing Weight             =     0.2500
redata: New DM Occupancy tolerance       = 0.000000000001
redata: No kicks to SCF
redata: DM Mixing Weight for Kicks       =     0.5000
redata: DM Tolerance for SCF             =     0.000100
redata: Require (free) Energy convergence in SCF =     F
redata: DM (free)Energy tolerance for SCF =     0.000010 eV
redata: Require Harris convergence for SCF =     F
redata: DM Harris energy tolerance for SCF =     0.000010 eV
redata: Using Saved Data (generic)   =     F
redata: Use continuation files for DM    =     T
redata: Neglect nonoverlap interactions  =     F
redata: Method of Calculation            =         Transiesta
redata: Fix the spin of the system       =     F
redata: Dynamics option                  =     Single-point calculation
redata: ***********************************************************************
Total number of electrons:    96.000000
Total ionic charge:    96.000000

* ProcessorY, Blocksize:    1  24


* Orbital distribution balance (max,min):   216   216

k-point displ. along   2 input, could be:     0.00    0.50
 Kpoints in:           18 . Kpoints trimmed:           17

siesta: k-grid: Number of k-points =    17
siesta: k-grid: Cutoff (effective) =     7.200 Ang
siesta: k-grid: Supercell and displacements
siesta: k-grid:    3   0   0      0.000
siesta: k-grid:    0  10   0      0.000
siesta: k-grid:    0   0   1      0.000

ts_read_options: **************************************************************
Left electrode file does not exist. Please create electrode 'NOT REQUESTED' first.
Stopping Program from Node:    0
