Siesta Version  : 4.1.5
Architecture    : unknown
Compiler version: GNU Fortran (crosstool-NG 1.24.0.133_b0863d8_dirty) 9.3.0
Compiler flags  : x86_64-conda-linux-gnu-gfortran -fopenmp -march=nocona -mtune=haswell -ftree--vectorize -fPIC -fstack-protector-strong -fno-plt -O2 -ffunction-sections -pipe
PP flags        : -DFC_HAVE_ABORT -DCDF -DNCDF -DNCDF_4
Libraries       : libncdf.a libfdict.a -llapack -lblas -lnetcdff -lnetcdf -lhdf5_hl -lhdf5 -lz  -fopenmp
SERIAL version
NetCDF support
NetCDF-4 support

* Running in serial mode
* Running 32 OpenMP threads.
* Running 32 processes.
* OpenMP version 201511
* OpenMP NOT bound (please bind threads!)
* OpenMP runtime schedule DYNAMIC, chunks 1
** OpenMP runtime schedule DYNAMIC, chunks 32
>> Start of run:  27-MAR-2023  10:52:23

                           ***********************       
                           *  WELCOME TO SIESTA  *       
                           ***********************       

reinit: Reading from RUN_ELEC.fdf

reinit: -----------------------------------------------------------------------
reinit: System Name: 
reinit: -----------------------------------------------------------------------
reinit: System Label: ELEC
reinit: -----------------------------------------------------------------------

initatom: Reading input for the pseudopotentials and atomic orbitals ----------
Species number:   1 Atomic number:    6 Label: C

Ground state valence configuration:   2s02  2p02
Reading pseudopotential information in formatted form from C.psf

Valence configuration for pseudopotential generation:
2s( 2.00) rc: 1.20
2p( 2.00) rc: 1.19
3d( 0.00) rc: 1.43
4f( 0.00) rc: 1.43
For C, standard SIESTA heuristics set lmxkb to 3
 (one more than the basis l, including polarization orbitals).
Use PS.lmax or PS.KBprojectors blocks to override.

<basis_specs>
===============================================================================
C                    Z=   6    Mass=  12.010        Charge= 0.17977+309
Lmxo=1 Lmxkb= 3    BasisType=split      Semic=F
L=0  Nsemic=0  Cnfigmx=2
          i=1  nzeta=1  polorb=0  (2s)
            splnorm:   0.15000    
               vcte:    0.0000    
               rinn:    0.0000    
               qcoe:    0.0000    
               qyuk:    0.0000    
               qwid:   0.10000E-01
                rcs:    0.0000    
            lambdas:    1.0000    
L=1  Nsemic=0  Cnfigmx=2
          i=1  nzeta=1  polorb=1  (2p)
            splnorm:   0.15000    
               vcte:    0.0000    
               rinn:    0.0000    
               qcoe:    0.0000    
               qyuk:    0.0000    
               qwid:   0.10000E-01
                rcs:    0.0000    
            lambdas:    1.0000    
-------------------------------------------------------------------------------
L=0  Nkbl=1  erefs: 0.17977+309
L=1  Nkbl=1  erefs: 0.17977+309
L=2  Nkbl=1  erefs: 0.17977+309
L=3  Nkbl=1  erefs: 0.17977+309
===============================================================================
</basis_specs>

Filter: Requested cutoff:  150.000000 Ry
atom: Called for C                     (Z =   6)

read_vps: Pseudopotential generation method:
read_vps: ATM3      Troullier-Martins                       
Valence charge for ps generation:    4.00000

read_vps: Pseudopotential includes a core correction:
read_vps: Pseudo-core for xc-correction

xc_check: Exchange-correlation functional:
xc_check: GGA Perdew, Burke & Ernzerhof 1996
V l=0 = -2*Zval/r beyond r=  1.2007
V l=1 = -2*Zval/r beyond r=  1.1710
V l=2 = -2*Zval/r beyond r=  1.4126
V l=3 = -2*Zval/r beyond r=  1.3951
All V_l potentials equal beyond r=  1.3951
This should be close to max(r_c) in ps generation
All pots = -2*Zval/r beyond r=  1.4126

VLOCAL1: 99.0% of the norm of Vloc inside     22.304 Ry
VLOCAL1: 99.9% of the norm of Vloc inside     50.830 Ry
atom: Maximum radius for 4*pi*r*r*local-pseudopot. charge    1.68286
atom: Maximum radius for r*vlocal+2*Zval:    1.44839
GHOST: No ghost state for L =  0
GHOST: No ghost state for L =  1
GHOST: No ghost state for L =  2
GHOST: No ghost state for L =  3

KBgen: Kleinman-Bylander projectors: 
   l= 0   rc=  1.561233   el= -1.009801   Ekb=  7.994661   kbcos=  0.259238
   l= 1   rc=  1.561233   el= -0.388707   Ekb= -5.421033   kbcos= -0.292933
   l= 2   rc=  1.682861   el=  0.001971   Ekb= -0.997067   kbcos= -0.007447
   l= 3   rc=  1.791422   el=  0.003065   Ekb= -0.398816   kbcos= -0.000907

KBgen: Total number of Kleinman-Bylander projectors:   16
atom: -------------------------------------------------------------------------

atom: SANKEY-TYPE ORBITALS:

SPLIT: Orbitals with angular momentum L= 0

SPLIT: Basis orbitals for state 2s

SPLIT: PAO cut-off radius determined from an
SPLIT: energy shift=  0.010000 Ry

   izeta = 1
                 lambda =    1.000000
                     rc =    4.518360
                 energy =   -1.000486
                kinetic =    0.907786
    potential(screened) =   -1.908272
       potential(ionic) =   -5.470848
PAO Filter: Cutoff used:   73.50 Ry
PAO Filter: diagnostic kin energy tol:    0.003000 Ry
PAO Filter: Nominal cutoff (before filtering):   38.95 Ry
Filter:    Number of eigenfunctions  of the
           filtering kernel (total, used)= 35 11

SPLIT: Orbitals with angular momentum L= 1

SPLIT: Basis orbitals for state 2p

SPLIT: PAO cut-off radius determined from an
SPLIT: energy shift=  0.010000 Ry

   izeta = 1
                 lambda =    1.000000
                     rc =    5.518829
                 energy =   -0.379731
                kinetic =    2.495535
    potential(screened) =   -2.875266
       potential(ionic) =   -6.307879
PAO Filter: Cutoff used:   73.50 Ry
PAO Filter: diagnostic kin energy tol:    0.003000 Ry
PAO Filter: Nominal cutoff (before filtering):   60.94 Ry
Filter:    Number of eigenfunctions  of the
           filtering kernel (total, used)= 41 13

POLgen: Perturbative polarization orbital with L=  2

POLgen: Polarization orbital for state 2p

   izeta = 1
                     rc =    5.518829
                 energy =    1.133605
                kinetic =    2.327985
    potential(screened) =   -1.194380
       potential(ionic) =   -4.027121
PAO Filter: diagnostic kin energy tol:    0.003000 Ry
PAO Filter: Nominal cutoff (before filtering):   84.54 Ry
Filter:    Number of eigenfunctions  of the
           filtering kernel (total, used)= 41 12
atom: Total number of Sankey-type orbitals:  9

atm_pop: Valence configuration (for local Pseudopot. screening):
 2s( 2.00)                                                            
 2p( 2.00)                                                            
Vna: chval, zval:    4.00000   4.00000

Vna:  Cut-off radius for the neutral-atom potential:   5.518829
VNA Filter: diagnostic kinetic energy tol:    0.003000 Ry
VNA Filter: Nominal cutoff (before filtering):   26.93 Ry
VNA Filter: Cutoff used:   150.00 Ry
Filter:    Number of eigenfunctions  of the
           filtering kernel (total, used)= 54 20
comcore: Pseudo-core radius Rcore=  1.791422
PCC Filter: diagnostic kin energy tol:    0.003000 Ry
PCC Filter: Nominal cutoff (before filtering):  211.64 Ry
PCC Filter: Cutoff used:   150.00 Ry
Filter:    Number of eigenfunctions  of the
           filtering kernel (total, used)= 24  5

atom: _________________________________________________________________________

prinput: Basis input ----------------------------------------------------------

PAO.BasisType split     

%block ChemicalSpeciesLabel
    1    6 C                       # Species index, atomic number, species label
%endblock ChemicalSpeciesLabel

%block PAO.Basis                 # Define Basis set
C                     2                    # Species label, number of l-shells
 n=2   0   1                         # n, l, Nzeta 
   4.518   
   1.000   
 n=2   1   1 P   1                   # n, l, Nzeta, Polarization, NzetaPol
   5.519   
   1.000   
%endblock PAO.Basis

prinput: ----------------------------------------------------------------------

Dumping basis to NetCDF file C.ion.nc
coor:   Atomic-coordinates input format  =     Cartesian coordinates
coor:                                          (in Angstroms)

siesta: Atomic coordinates (Bohr) and species
siesta:      0.00000   0.00000   0.00000  1        1
siesta:      1.36060   2.35663   0.00000  1        2
siesta:      4.08181   2.35663   0.00000  1        3
siesta:      5.44241   0.00000   0.00000  1        4
siesta:      8.16362   0.00000   0.00000  1        5
siesta:      9.52422   2.35663   0.00000  1        6
siesta:     12.24543   2.35663   0.00000  1        7
siesta:     13.60603   0.00000   0.00000  1        8

siesta: System type = slab      

initatomlists: Number of atoms, orbitals, and projectors:      8    72   128

siesta: ******************** Simulation parameters ****************************
siesta:
siesta: The following are some of the parameters of the simulation.
siesta: A complete list of the parameters used, including default values,
siesta: can be found in file out.fdf
siesta:
redata: Spin configuration                          = none
redata: Number of spin components                   = 1
redata: Time-Reversal Symmetry                      = T
redata: Spin spiral                                 = F
redata: Long output                                 =   F
redata: Number of Atomic Species                    =        1
redata: Charge density info will appear in .RHO file
redata: Write Mulliken Pop.                         = NO
redata: Matel table size (NRTAB)                    =     1024
redata: Mesh Cutoff                                 =   250.0000 Ry
redata: Net charge of the system                    =     0.0000 |e|
redata: Min. number of SCF Iter                     =        3
redata: Max. number of SCF Iter                     =      200
redata: SCF convergence failure will abort job
redata: SCF mix quantity                            = Hamiltonian
redata: Mix DM or H after convergence               =   F
redata: Recompute H after scf cycle                 =   F
redata: Mix DM in first SCF step                    =   T
redata: Write Pulay info on disk                    =   F
redata: New DM Occupancy tolerance                  = 0.000000000001
redata: No kicks to SCF
redata: DM Mixing Weight for Kicks                  =     0.5000
redata: Require Harris convergence for SCF          =   F
redata: Harris energy tolerance for SCF             =     0.000100 eV
redata: Require DM convergence for SCF              =   T
redata: DM tolerance for SCF                        =     0.000100
redata: Require EDM convergence for SCF             =   F
redata: EDM tolerance for SCF                       =     0.001000 eV
redata: Require H convergence for SCF               =   T
redata: Hamiltonian tolerance for SCF               =     0.001000 eV
redata: Require (free) Energy convergence for SCF   =   F
redata: (free) Energy tolerance for SCF             =     0.000100 eV
redata: Using Saved Data (generic)                  =   F
redata: Use continuation files for DM               =   T
redata: Neglect nonoverlap interactions             =   F
redata: Method of Calculation                       = Diagonalization
redata: Electronic Temperature                      =   299.9978 K
redata: Fix the spin of the system                  =   F
redata: Dynamics option                             = Single-point calculation
mix.SCF: Pulay mixing                            = Pulay
mix.SCF:    Variant                              = stable
mix.SCF:    History steps                        = 12
mix.SCF:    Linear mixing weight                 =     0.100000
mix.SCF:    Mixing weight                        =     0.100000
mix.SCF:    SVD condition                        = 0.1000E-07
redata: Save all siesta data in one NC              =   F
redata: ***********************************************************************

%block SCF.Mixers
  Pulay
%endblock SCF.Mixers

%block SCF.Mixer.Pulay
  # Mixing method
  method pulay
  variant stable

  # Mixing options
  weight 0.1000
  weight.linear 0.1000
  history 12
%endblock SCF.Mixer.Pulay

DM_history_depth set to one: no extrapolation allowed by default for geometry relaxation
Size of DM history Fstack: 1
Total number of electrons:    32.000000
Total ionic charge:    32.000000
k-point displ. along   1 input, could be:     0.00    0.50
k-point displ. along   2 input, could be:     0.00    0.50
 Kpoints in:          510 . Kpoints trimmed:          506

siesta: k-grid: Number of k-points =   506
siesta: k-grid: Cutoff (effective) =     7.200 Ang
siesta: k-grid: Supercell and displacements
siesta: k-grid:  100   0   0      0.000
siesta: k-grid:    0  10   0      0.000
siesta: k-grid:    0   0   1      0.000

diag: Algorithm                                     = D&C
diag: Used triangular part                          = Lower
diag: Absolute tolerance                            =  0.100E-15
diag: Orthogonalization factor                      =  0.100E-05
diag: Memory factor                                 =  1.0000

superc: Internal auxiliary supercell:     3 x     7 x     1  =      21
superc: Number of atoms, orbitals, and projectors:    168   1512   2688


ts: **************************************************************
ts: Save H and S matrices                           =    T
ts: Save DM and EDM matrices                        =    T
ts: Only save the overlap matrix S                  =    F
ts: **************************************************************

************************ Begin: TS CHECKS AND WARNINGS ************************
************************ End: TS CHECKS AND WARNINGS **************************


                     ====================================
                        Single-point calculation
                     ====================================

superc: Internal auxiliary supercell:     3 x     7 x     1  =      21
superc: Number of atoms, orbitals, and projectors:    168   1512   2688

outcell: Unit cell vectors (Ang):
        8.640000    0.000000    0.000000
        0.000000    2.494153    0.000000
        0.000000    0.000000   14.400000

outcell: Cell vector modules (Ang)   :    8.640000    2.494153   14.400000
outcell: Cell angles (23,13,12) (deg):     90.0000     90.0000     90.0000
outcell: Cell volume (Ang**3)        :    310.3126
<dSpData1D:S at geom step 0
  <sparsity:sparsity for geom step 0
    nrows_g=72 nrows=72 sparsity=7.6620 nnzs=39720, refcount: 7>
  <dData1D:(new from dSpData1D) n=39720, refcount: 1>
refcount: 1>
new_DM -- step:     1
Initializing Density Matrix...

Attempting to read DM from file... Failed...
DM filled with atomic data:
<dSpData2D:DM initialized from atoms
  <sparsity:sparsity for geom step 0
    nrows_g=72 nrows=72 sparsity=7.6620 nnzs=39720, refcount: 8>
  <dData2D:DM n=39720 m=1, refcount: 1>
refcount: 1>
No. of atoms with KB's overlaping orbs in proc 0. Max # of overlaps:      48     165
New grid distribution:   1
           1       1:   45    1:   12    1:   72

InitMesh: MESH =    90 x    24 x   144 =      311040
InitMesh: (bp) =    45 x    12 x    72 =       38880
InitMesh: Mesh cutoff (required, used) =   250.000   255.904 Ry
ExtMesh (bp) on 0 =   109 x    72 x   132 =     1035936
PhiOnMesh: Number of (b)points on node 0 =                38880
PhiOnMesh: nlist on node 0 =               965376

stepf: Fermi-Dirac step function

siesta: Program's energy decomposition (eV):
siesta: Ebs     =      -497.655544
siesta: Eions   =      2231.813601
siesta: Ena     =       586.547027
siesta: Ekin    =       833.547489
siesta: Enl     =       -49.511116
siesta: Eso     =         0.000000
siesta: Edftu   =         0.000000
siesta: DEna    =         5.735901
siesta: DUscf   =         1.185714
siesta: DUext   =         0.000000
siesta: Exc     =      -443.814743
siesta: eta*DQ  =         0.000000
siesta: Emadel  =         0.000000
siesta: Emeta   =         0.000000
siesta: Emolmec =         0.000000
siesta: Ekinion =         0.000000
siesta: Eharris =     -1286.704107
siesta: Etot    =     -1298.123329
siesta: FreeEng =     -1298.123329

        iscf     Eharris(eV)        E_KS(eV)     FreeEng(eV)     dDmax    Ef(eV) dHmax(eV)
   scf:    1    -1286.704107    -1298.123329    -1298.123329  1.377137 -5.821412  0.505947
timer: Routine,Calls,Time,% = IterSCF        1     120.391  99.07
   scf:    2    -1298.123975    -1298.123653    -1298.123653  0.000230 -5.870060  0.456693
   scf:    3    -1298.125923    -1298.124861    -1298.124861  0.002154 -6.331228  0.006325
   scf:    4    -1298.124921    -1298.124894    -1298.124894  0.000281 -6.327395  0.000270
   scf:    5    -1298.124894    -1298.124894    -1298.124894  0.000009 -6.327790  0.000182

SCF Convergence by DM+H criterion
max |DM_out - DM_in|         :     0.0000091739
max |H_out - H_in|      (eV) :     0.0001816153
SCF cycle converged after 5 iterations

Using DM_out to compute the final energy and forces
No. of atoms with KB's overlaping orbs in proc 0. Max # of overlaps:      48     165

siesta: E_KS(eV) =            -1298.1249

siesta: E_KS - E_eggbox =     -1298.1249

siesta: Atomic forces (eV/Ang):
----------------------------------------
   Tot   -0.000000    0.000000   -0.000000
----------------------------------------
   Max    0.046969
   Res    0.025013    sqrt( Sum f_i^2 / 3N )
----------------------------------------
   Max    0.046969    constrained

Stress tensor Voigt[x,y,z,yz,xz,xy] (kbar):      -28.74      -25.89        0.36       -0.00       -0.00       -0.00
(Free)E + p*V (eV/cell)    -1294.6210
Target enthalpy (eV/cell)    -1298.1249

siesta: Program's energy decomposition (eV):
siesta: Ebs     =      -498.291002
siesta: Eions   =      2231.813601
siesta: Ena     =       586.547027
siesta: Ekin    =       833.056157
siesta: Enl     =       -49.555088
siesta: Eso     =         0.000000
siesta: Edftu   =         0.000000
siesta: DEna    =         6.167358
siesta: DUscf   =         1.168994
siesta: DUext   =         0.000000
siesta: Exc     =      -443.695740
siesta: eta*DQ  =         0.000000
siesta: Emadel  =         0.000000
siesta: Emeta   =         0.000000
siesta: Emolmec =         0.000000
siesta: Ekinion =         0.000000
siesta: Eharris =     -1298.124894
siesta: Etot    =     -1298.124894
siesta: FreeEng =     -1298.124894

siesta: Final energy (eV):
siesta:  Band Struct. =    -498.291002
siesta:       Kinetic =     833.056157
siesta:       Hartree =    3965.343529
siesta:       Edftu   =       0.000000
siesta:       Eso     =       0.000000
siesta:    Ext. field =       0.000000
siesta:   Exch.-corr. =    -443.695740
siesta:  Ion-electron =   -8773.781554
siesta:       Ion-ion =    3120.952714
siesta:       Ekinion =       0.000000
siesta:         Total =   -1298.124894
siesta:         Fermi =      -6.327790

siesta: Atomic forces (eV/Ang):
siesta:      1    0.046969    0.000000   -0.000000
siesta:      2   -0.039341   -0.000000   -0.000000
siesta:      3    0.039341    0.000000   -0.000000
siesta:      4   -0.046969    0.000000    0.000000
siesta:      5    0.046969    0.000000    0.000000
siesta:      6   -0.039341   -0.000000   -0.000000
siesta:      7    0.039341   -0.000000   -0.000000
siesta:      8   -0.046969    0.000000   -0.000000
siesta: ----------------------------------------
siesta:    Tot   -0.000000    0.000000   -0.000000

siesta: Stress tensor (static) (eV/Ang**3):
siesta:    -0.017941   -0.000000   -0.000000
siesta:    -0.000000   -0.016158   -0.000000
siesta:    -0.000000   -0.000000    0.000225

siesta: Cell volume =        310.312560 Ang**3

siesta: Pressure (static):
siesta:                Solid            Molecule  Units
siesta:           0.00012298          0.00012482  Ry/Bohr**3
siesta:           0.01129149          0.01146040  eV/Ang**3
siesta:          18.09115702         18.36177991  kBar
(Free)E+ p_basis*V_orbitals  =       -1295.469247
(Free)Eharris+ p_basis*V_orbitals  =       -1295.469247

siesta: Electric dipole (a.u.)  =   -0.000000   -0.000000   -0.000000
siesta: Electric dipole (Debye) =   -0.000000   -0.000000   -0.000000

cite: Please see "ELEC.bib" for an exhaustive BiBTeX file.
cite: Please clearly indicate Siesta version in published work: 4.1.5
cite: This calculation has made use of the following articles
cite: which are encouraged to be cited in a published work.
        Primary SIESTA paper
          DOI: www.doi.org/10.1088/0953-8984/14/11/302


timer: Elapsed wall time (sec) =     603.811
timer: CPU execution times (sec):

Routine            Calls   Time/call    Tot.time        %
siesta                 1     603.811     603.811   100.00
Setup                  1       0.118       0.118     0.02
bands                  1       0.000       0.000     0.00
KSV_init               1       0.000       0.000     0.00
IterGeom               1     603.674     603.674    99.98
state_init             1       0.062       0.062     0.01
hsparse                1       0.003       0.003     0.00
overlap                1       0.038       0.038     0.01
Setup_H0               1       0.945       0.945     0.16
naefs                  2       0.000       0.000     0.00
MolMec                 2       0.000       0.000     0.00
kinefsm                2       0.021       0.042     0.01
nlefsm                 2       0.133       0.267     0.04
DHSCF_Init             1       0.732       0.732     0.12
DHSCF1                 1       0.024       0.024     0.00
INITMESH               1       0.000       0.000     0.00
DHSCF2                 1       0.708       0.708     0.12
REMESH                 1       0.091       0.091     0.02
REORD                 29       0.000       0.009     0.00
PHION                  1       0.510       0.510     0.08
COMM_BSC              31       0.000       0.008     0.00
POISON                 8       0.047       0.376     0.06
fft                   16       0.012       0.194     0.03
IterSCF                5     120.248     601.241    99.57
setup_H                6       0.292       1.751     0.29
DHSCF                  7       0.417       2.922     0.48
DHSCF3                 7       0.269       1.882     0.31
rhoofd                 7       0.044       0.311     0.05
XC                     7       0.079       0.555     0.09
GXC-CellXC             7       0.078       0.548     0.09
cellXC                 7       0.078       0.548     0.09
vmat                   7       0.057       0.401     0.07
writeHSX               7       0.005       0.032     0.01
compute_dm             5     119.808     599.042    99.21
diagon                 5     119.801     599.006    99.20
c-eigval            2530       0.029      72.377    11.99
c-buildHS           2530       0.020      49.376     8.18
cdiag               5060       0.011      56.469     9.35
cdiag1              5060       0.009      47.219     7.82
cdiag2              5060       0.001       3.648     0.60
cdiag3              5060       0.001       5.426     0.90
c-eigvec            2530       0.021      53.072     8.79
cdiag4              2530       0.000       0.096     0.02
c-buildD            2530       0.187     473.536    78.42
MIXER                  4       0.090       0.360     0.06
PostSCF                1       1.426       1.426     0.24
DHSCF4                 1       1.040       1.040     0.17
dfscf                  1       0.976       0.976     0.16
overfsm                1       0.008       0.008     0.00
state_analysis         1       0.000       0.000     0.00
siesta_move            1       0.000       0.000     0.00
Analysis               1       0.018       0.018     0.00
siesta_analysis        1       0.018       0.018     0.00
optical                1       0.000       0.000     0.00
  
>> End of run:  27-MAR-2023  11:02:26
Job completed
