Siesta Version  : v4.0.2
Architecture    : x86_64-unknown-linux-gnu--unknown
Compiler version: GNU Fortran (Ubuntu 9.4.0-1ubuntu1~20.04.1) 9.4.0
Compiler flags  : mpif90 -g -O2
PP flags        : -DMPI -DFC_HAVE_FLUSH -DFC_HAVE_ABORT 
PARALLEL version

* Running on    6 nodes in parallel
>> Start of run:  23-MAR-2023  15:00:00

                           ***********************       
                           *  WELCOME TO SIESTA  *       
                           ***********************       

reinit: Reading from standard input
************************** Dump of input data file ****************************
SystemLabel ELEC
%include STRUCT_ELEC.fdf
%block kgrid.MonkhorstPack
  100   0  0 0.
    0  10  0 0.
    0   0  1 0.
%endblock kgrid.MonkhorstPack
PAO.BasisSize         SZP
PAO.EnergyShift       0.01 Ry
XC.functional     GGA
XC.authors        PBE
MeshCutoff        250.000000 Ry
FilterCutoff      150.000000 Ry
ElectronicTemperature   300 K
OccupationFunction      FD
MinSCFIterations       3
MaxSCFIterations       200
SCF.DM.Tolerance       0.0001
# Mixing parameters:
SCF.Mixer.Weight       0.10
SCF.Mixer.History      12
SCF.Mix.First          true
DM.UseSaveDM           .true.
MD.NumCGSteps 0
SaveHS                          T
************************** End of input data file *****************************

reinit: -----------------------------------------------------------------------
reinit: System Name: 
reinit: -----------------------------------------------------------------------
reinit: System Label: ELEC                                                        
reinit: -----------------------------------------------------------------------

initatom: Reading input for the pseudopotentials and atomic orbitals ----------
 Species number:            1  Label: C Atomic number:           6
Ground state valence configuration:   2s02  2p02
Reading pseudopotential information in formatted form from C.psf

Valence configuration for pseudopotential generation:
2s( 2.00) rc: 1.20
2p( 2.00) rc: 1.19
3d( 0.00) rc: 1.43
4f( 0.00) rc: 1.43
For C, standard SIESTA heuristics set lmxkb to 3
 (one more than the basis l, including polarization orbitals).
Use PS.lmax or PS.KBprojectors blocks to override.

<basis_specs>
===============================================================================
C                    Z=   6    Mass=  12.010        Charge= 0.17977+309
Lmxo=1 Lmxkb= 3    BasisType=split      Semic=F
L=0  Nsemic=0  Cnfigmx=2
          n=1  nzeta=1  polorb=0
            splnorm:   0.15000    
               vcte:    0.0000    
               rinn:    0.0000    
               qcoe:    0.0000    
               qyuk:    0.0000    
               qwid:   0.10000E-01
                rcs:    0.0000    
            lambdas:    1.0000    
L=1  Nsemic=0  Cnfigmx=2
          n=1  nzeta=1  polorb=1
            splnorm:   0.15000    
               vcte:    0.0000    
               rinn:    0.0000    
               qcoe:    0.0000    
               qyuk:    0.0000    
               qwid:   0.10000E-01
                rcs:    0.0000    
            lambdas:    1.0000    
-------------------------------------------------------------------------------
L=0  Nkbl=1  erefs: 0.17977+309
L=1  Nkbl=1  erefs: 0.17977+309
L=2  Nkbl=1  erefs: 0.17977+309
L=3  Nkbl=1  erefs: 0.17977+309
===============================================================================
</basis_specs>

Filter: Requested cutoff:  150.000000 Ry
atom: Called for C                     (Z =   6)

read_vps: Pseudopotential generation method:
read_vps: ATM3      Troullier-Martins                       
Total valence charge:    4.00000

read_vps: Pseudopotential includes a core correction:
read_vps: Pseudo-core for xc-correction

xc_check: Exchange-correlation functional:
xc_check: GGA Perdew, Burke & Ernzerhof 1996
V l=0 = -2*Zval/r beyond r=  1.2007
V l=1 = -2*Zval/r beyond r=  1.1710
V l=2 = -2*Zval/r beyond r=  1.4126
V l=3 = -2*Zval/r beyond r=  1.3951
All V_l potentials equal beyond r=  1.3951
This should be close to max(r_c) in ps generation
All pots = -2*Zval/r beyond r=  1.4126

VLOCAL1: 99.0% of the norm of Vloc inside     22.304 Ry
VLOCAL1: 99.9% of the norm of Vloc inside     50.830 Ry
atom: Maximum radius for 4*pi*r*r*local-pseudopot. charge    1.68286
atom: Maximum radius for r*vlocal+2*Zval:    1.44839
GHOST: No ghost state for L =  0
GHOST: No ghost state for L =  1
GHOST: No ghost state for L =  2
GHOST: No ghost state for L =  3

KBgen: Kleinman-Bylander projectors: 
   l= 0   rc=  1.561233   el= -1.009801   Ekb=  7.994661   kbcos=  0.259238
   l= 1   rc=  1.561233   el= -0.388707   Ekb= -5.421033   kbcos= -0.292933
   l= 2   rc=  1.682861   el=  0.001971   Ekb= -0.997067   kbcos= -0.007447
   l= 3   rc=  1.791422   el=  0.003065   Ekb= -0.398816   kbcos= -0.000907

KBgen: Total number of  Kleinman-Bylander projectors:   16
atom: -------------------------------------------------------------------------

atom: SANKEY-TYPE ORBITALS:

SPLIT: Orbitals with angular momentum L= 0

SPLIT: Basis orbitals for state 2s

SPLIT: PAO cut-off radius determined from an
SPLIT: energy shift=  0.010000 Ry

   izeta = 1
                 lambda =    1.000000
                     rc =    4.518360
                 energy =   -1.000486
                kinetic =    0.907786
    potential(screened) =   -1.908272
       potential(ionic) =   -5.470848
PAO Filter: Cutoff used:   73.50 Ry
PAO Filter: diagnostic kin energy tol:    0.003000 Ry
PAO Filter: Nominal cutoff (before filtering):   38.95 Ry
Filter:    Number of eigenfunctions  of the
           filtering kernel (total, used)= 35 11

SPLIT: Orbitals with angular momentum L= 1

SPLIT: Basis orbitals for state 2p

SPLIT: PAO cut-off radius determined from an
SPLIT: energy shift=  0.010000 Ry

   izeta = 1
                 lambda =    1.000000
                     rc =    5.518829
                 energy =   -0.379731
                kinetic =    2.495535
    potential(screened) =   -2.875266
       potential(ionic) =   -6.307879
PAO Filter: Cutoff used:   73.50 Ry
PAO Filter: diagnostic kin energy tol:    0.003000 Ry
PAO Filter: Nominal cutoff (before filtering):   60.94 Ry
Filter:    Number of eigenfunctions  of the
           filtering kernel (total, used)= 41 13

POLgen: Perturbative polarization orbital with L=  2

POLgen: Polarization orbital for state 2p

   izeta = 1
                     rc =    5.518829
                 energy =    1.133605
                kinetic =    2.327985
    potential(screened) =   -1.194380
       potential(ionic) =   -4.027121
PAO Filter: diagnostic kin energy tol:    0.003000 Ry
PAO Filter: Nominal cutoff (before filtering):   84.54 Ry
Filter:    Number of eigenfunctions  of the
           filtering kernel (total, used)= 41 12
atom: Total number of Sankey-type orbitals:  9

atm_pop: Valence configuration (for local Pseudopot. screening):
 2s( 2.00)                                                            
 2p( 2.00)                                                            
Vna: chval, zval:    4.00000   4.00000

Vna:  Cut-off radius for the neutral-atom potential:   5.518829
VNA Filter: diagnostic kinetic energy tol:    0.003000 Ry
VNA Filter: Nominal cutoff (before filtering):   26.93 Ry
VNA Filter: Cutoff used:   150.00 Ry
Filter:    Number of eigenfunctions  of the
           filtering kernel (total, used)= 54 20
comcore: Pseudo-core radius Rcore=  1.791422
PCC Filter: diagnostic kin energy tol:    0.003000 Ry
PCC Filter: Nominal cutoff (before filtering):  211.64 Ry
PCC Filter: Cutoff used:   150.00 Ry
Filter:    Number of eigenfunctions  of the
           filtering kernel (total, used)= 24  5

atom: _________________________________________________________________________

prinput: Basis input ----------------------------------------------------------

PAO.BasisType split     

%block ChemicalSpeciesLabel
    1    6 C                       # Species index, atomic number, species label
%endblock ChemicalSpeciesLabel

%block PAO.Basis                 # Define Basis set
C                     2                    # Species label, number of l-shells
 n=2   0   1                         # n, l, Nzeta 
   4.518   
   1.000   
 n=2   1   1 P   1                   # n, l, Nzeta, Polarization, NzetaPol
   5.519   
   1.000   
%endblock PAO.Basis

prinput: ----------------------------------------------------------------------

coor:   Atomic-coordinates input format  =     Cartesian coordinates
coor:                                          (in Angstroms)

siesta: Atomic coordinates (Bohr) and species
siesta:      0.00000   0.00000   0.00000  1        1
siesta:      1.36060   2.35663   0.00000  1        2
siesta:      4.08181   2.35663   0.00000  1        3
siesta:      5.44241   0.00000   0.00000  1        4
siesta:      8.16362   0.00000   0.00000  1        5
siesta:      9.52422   2.35663   0.00000  1        6
siesta:     12.24543   2.35663   0.00000  1        7
siesta:     13.60603   0.00000   0.00000  1        8

siesta: System type = slab      

initatomlists: Number of atoms, orbitals, and projectors:      8    72   128

siesta: ******************** Simulation parameters ****************************
siesta:
siesta: The following are some of the parameters of the simulation.
siesta: A complete list of the parameters used, including default values,
siesta: can be found in file out.fdf
siesta:
redata: Non-Collinear-spin run           =     F
redata: SpinPolarized (Up/Down) run      =     F
redata: Number of spin components        =     1
redata: Long output                      =     F
redata: Number of Atomic Species         =        1
redata: Charge density info will appear in .RHO file
redata: Write Mulliken Pop.              =     NO
redata: Matel table size (NRTAB)         =     1024
redata: Mesh Cutoff                      =   250.0000 Ry
redata: Net charge of the system         =     0.0000 |e|
redata: Min. number of SCF Iter          =        3
redata: Max. number of SCF Iter          =      200
redata: Mix DM or H after convergence    =     F
redata: Recompute H after scf cycle      =     F
redata: Mixing is linear
redata: Mix DM in first SCF step ?       =     F
redata: Write Pulay info on disk?        =     F
redata: Discard 1st Pulay DM after  kick =     F
redata: New DM Mixing Weight             =     0.2500
redata: New DM Occupancy tolerance       = 0.000000000001
redata: No kicks to SCF
redata: DM Mixing Weight for Kicks       =     0.5000
redata: DM Tolerance for SCF             =     0.000100
redata: Require (free) Energy convergence in SCF =     F
redata: DM (free)Energy tolerance for SCF =     0.000010 eV
redata: Require Harris convergence for SCF =     F
redata: DM Harris energy tolerance for SCF =     0.000010 eV
redata: Using Saved Data (generic)   =     F
redata: Use continuation files for DM    =     T
redata: Neglect nonoverlap interactions  =     F
redata: Method of Calculation            =     Diagonalization
redata: Divide and Conquer               =     T
redata: Electronic Temperature           =     0.0019  Ry
redata: Fix the spin of the system       =     F
redata: Dynamics option                  =     Single-point calculation
redata: ***********************************************************************
Total number of electrons:    32.000000
Total ionic charge:    32.000000

* ProcessorY, Blocksize:    2  13


* Orbital distribution balance (max,min):    13     7

k-point displ. along   1 input, could be:     0.00    0.50
k-point displ. along   2 input, could be:     0.00    0.50
 Kpoints in:          510 . Kpoints trimmed:          506

siesta: k-grid: Number of k-points =   506
siesta: k-grid: Cutoff (effective) =     7.200 Ang
siesta: k-grid: Supercell and displacements
siesta: k-grid:  100   0   0      0.000
siesta: k-grid:    0  10   0      0.000
siesta: k-grid:    0   0   1      0.000
Naive supercell factors:     2    7    2

superc: Internal auxiliary supercell:     2 x     7 x     2  =      28
superc: Number of atoms, orbitals, and projectors:    224   2016   3584

                     ====================================
                        Single-point calculation
                     ====================================

superc: Internal auxiliary supercell:     2 x     7 x     2  =      28
superc: Number of atoms, orbitals, and projectors:    224   2016   3584

outcell: Unit cell vectors (Ang):
        8.640000    0.000000    0.000000
        0.000000    2.494153    0.000000
        0.000000    0.000000   14.400000

outcell: Cell vector modules (Ang)   :    8.640000    2.494153   14.400000
outcell: Cell angles (23,13,12) (deg):     90.0000     90.0000     90.0000
outcell: Cell volume (Ang**3)        :    310.3126
New_DM. Step:     1
Initializing Density Matrix...

iodm: Reading Density Matrix from files
New grid distribution:   1
           1       1:   45    1:    6    1:   24
           2       1:   45    1:    6   25:   48
           3       1:   45    1:    6   49:   72
           4       1:   45    7:   12    1:   24
           5       1:   45    7:   12   25:   48
           6       1:   45    7:   12   49:   72

InitMesh: MESH =    90 x    24 x   144 =      311040
InitMesh: (bp) =    45 x    12 x    72 =       38880
InitMesh: Mesh cutoff (required, used) =   250.000   255.904 Ry
ExtMesh (bp) on 0 =   109 x    66 x    84 =      604296
New grid distribution:   2
           1      16:   45    1:   12    5:   12
           2      16:   45    1:   12   13:   68
           3      16:   45    1:   12   69:   72
           4      16:   45    1:   12    1:    4
           5       1:   15    1:   12   13:   72
           6       1:   15    1:   12    1:   12
New grid distribution:   3
           1      16:   45    1:   12    8:   15
           2      16:   45    1:   12   16:   65
           3      16:   45    1:   12   66:   72
           4      16:   45    1:   12    1:    7
           5       1:   15    1:   12   16:   72
           6       1:   15    1:   12    1:   15
Setting up quadratic distribution...
ExtMesh (bp) on 0 =    94 x    72 x    68 =      460224
PhiOnMesh: Number of (b)points on node 0 =                 2880
PhiOnMesh: nlist on node 0 =               183067

stepf: Fermi-Dirac step function

siesta: Program's energy decomposition (eV):
siesta: Ebs     =      -498.070887
siesta: Eions   =      2231.813601
siesta: Ena     =       586.547027
siesta: Ekin    =       833.219604
siesta: Enl     =       -49.527762
siesta: DEna    =         6.013660
siesta: DUscf   =         1.175505
siesta: DUext   =         0.000000
siesta: Exc     =      -443.738713
siesta: eta*DQ  =         0.000000
siesta: Emadel  =         0.000000
siesta: Emeta   =         0.000000
siesta: Emolmec =         0.000000
siesta: Ekinion =         0.000000
siesta: Eharris =     -1298.124928
siesta: Etot    =     -1298.124281
siesta: FreeEng =     -1298.124281

   scf: iscf   Eharris(eV)      E_KS(eV)   FreeEng(eV)    dDmax  Ef(eV)
   scf:    1    -1298.1249    -1298.1243    -1298.1243  0.00098 -6.3223
timer: Routine,Calls,Time,% =    IterSCF     1       3.241  80.82
   scf:    2    -1298.1249    -1298.1249    -1298.1249  0.00012 -6.3288
   scf:    3    -1298.1249    -1298.1249    -1298.1249  0.00008 -6.3284

SCF Convergence by dMax criterion
max |DM_out - DM_in|:     0.00008155
SCF cycle converged after    3 iterations

Using DM_out to compute the final energy and forces

siesta: E_KS(eV) =            -1298.1249

siesta: E_KS - E_eggbox =     -1298.1249

siesta: Atomic forces (eV/Ang):
----------------------------------------
   Tot    0.000000    0.000000    0.000000
----------------------------------------
   Max    0.046967
   Res    0.025011    sqrt( Sum f_i^2 / 3N )
----------------------------------------
   Max    0.046967    constrained

Stress-tensor-Voigt (kbar):      -28.71      -25.85        0.36        0.00        0.00       -0.00
(Free)E + p*V (eV/cell)    -1294.6260
Target enthalpy (eV/cell)    -1298.1249

siesta: Program's energy decomposition (eV):
siesta: Ebs     =      -498.319661
siesta: Eions   =      2231.813601
siesta: Ena     =       586.547027
siesta: Ekin    =       833.062671
siesta: Enl     =       -49.556387
siesta: DEna    =         6.163129
siesta: DUscf   =         1.169069
siesta: DUext   =         0.000000
siesta: Exc     =      -443.696815
siesta: eta*DQ  =         0.000000
siesta: Emadel  =         0.000000
siesta: Emeta   =         0.000000
siesta: Emolmec =         0.000000
siesta: Ekinion =         0.000000
siesta: Eharris =     -1298.124909
siesta: Etot    =     -1298.124909
siesta: FreeEng =     -1298.124909

siesta: Final energy (eV):
siesta:  Band Struct. =    -498.319661
siesta:       Kinetic =     833.062671
siesta:       Hartree =    3965.350342
siesta:    Ext. field =       0.000000
siesta:   Exch.-corr. =    -443.696815
siesta:  Ion-electron =   -8773.793808
siesta:       Ion-ion =    3120.952702
siesta:       Ekinion =       0.000000
siesta:         Total =   -1298.124909

siesta: Atomic forces (eV/Ang):
siesta:      1    0.046967    0.000000    0.000000
siesta:      2   -0.039338    0.000000    0.000000
siesta:      3    0.039338   -0.000000    0.000000
siesta:      4   -0.046967    0.000000    0.000000
siesta:      5    0.046967    0.000000    0.000000
siesta:      6   -0.039338    0.000000    0.000000
siesta:      7    0.039338   -0.000000   -0.000000
siesta:      8   -0.046967   -0.000000   -0.000000
siesta: ----------------------------------------
siesta:    Tot    0.000000    0.000000    0.000000

siesta: Stress tensor (static) (eV/Ang**3):
siesta:    -0.017917    0.000000   -0.000000
siesta:     0.000000   -0.016135    0.000000
siesta:    -0.000000    0.000000    0.000225

siesta: Cell volume =        310.312560 Ang**3

siesta: Pressure (static):
siesta:                Solid            Molecule  Units
siesta:           0.00012281          0.00012464  Ry/Bohr**3
siesta:           0.01127558          0.01144448  eV/Ang**3
siesta:          18.06566197         18.33627585  kBar
(Free)E+ p_basis*V_orbitals  =       -1295.469262
(Free)Eharris+ p_basis*V_orbitals  =       -1295.469263

siesta: Electric dipole (a.u.)  =    0.000000    0.000000    0.000000
siesta: Electric dipole (Debye) =    0.000000    0.000000    0.000000
>> End of run:  23-MAR-2023  15:00:12
Job completed
